70
Properties=species:S:1:pos:R:3:tags:I:1:momenta:R:3 energy=135.09704566852326 pbc="F F F"
F       -3.28831965       1.56059654      -0.95676815        0    -214.79439445     104.95661785      12.74344470
C       -2.99066559       0.24207331      -0.90893525        0    -120.22903686      69.86105056       8.43938784
C       -4.01317401      -0.69051956      -0.93902410        0    -107.01502074      56.37429105       8.12531738
C       -3.72544435      -2.04159573      -0.91005663        0     -88.07444636      60.74970911     -10.83643402
F       -4.72083731      -2.95350329      -0.96844434        0    -117.22550196      70.65254662      11.26961344
C       -2.41816098      -2.45524029      -0.84194269        0     -80.61249872      81.54680831     -44.80177143
C       -1.34748296      -1.53997032      -0.81918766        0     -92.74298469      90.07586674     -15.76039154
C       -0.04191695      -2.08739171      -0.81350791        0      90.46462895      92.27752714      52.65695219
C        1.25595335      -1.51959916      -0.81610788        0     119.47278580      22.50827626      23.58108250
C        2.33443660      -2.41138917      -0.97468842        0      85.47342665     -15.24657776      54.98440483
C        3.63493732      -1.97594397      -1.03789322        0      98.97797269     -55.40808855      61.25654403
F        4.63159334      -2.86119713      -1.25924336        0     116.15873971    -137.13015221     116.37095987
C        3.91070185      -0.62728860      -0.91562902        0     136.43976920     -62.14875207      40.83448902
C        2.88119336       0.28149105      -0.73801113        0     164.81646123     -27.31829561       0.45724949
F        3.15904234       1.60376053      -0.66987448        0     315.82639032     -55.49855469     -79.62708322
C        1.57576682      -0.15388321      -0.67697730        0     155.10025981      10.47537337      14.88286443
C       -1.67845167      -0.17080017      -0.84958378        0    -115.20168711      83.77118848       6.09980749
H       -5.03514801      -0.36704654      -1.02103814        0      -9.34292123       3.57928540       0.78626081
H       -2.22353484      -3.51168159      -0.84113688        0      -5.88446940       7.00098817      -3.50005534
H       -0.03496013      -3.16507025      -0.85702909        0      -9.16907584      -0.45640989      -2.17102066
H        2.15020636      -3.46438307      -1.08003864        0       4.53572123      -0.97163092       6.91339967
H        4.92867280      -0.28577719      -0.97800611        0      12.12844887      -7.31191120       3.78423230
H        0.82989100       0.58798350      -0.47877920        0      14.68263383       2.22360692       2.40950857
H       -0.93122731       0.59545901      -0.86151017        0     -10.36876316       7.70623551       3.03640984
C        0.72702595       0.34215739      11.35855406        0      -3.59879019       6.65669784      60.58250264
C        0.21028037       0.32996199       9.97762905        0      13.71703994      18.71768816      54.64913516
C       -0.92353733       0.92134725       9.53605488        0      10.22107381       0.43305677      41.31682190
C       -1.16806357       0.72821598       8.14317940        0      18.71715479     -19.67579818      43.11506319
C       -0.22667280      -0.00724726       7.52629061        0      44.31781553       9.96716875      45.27561905
B       -0.20945074      -0.40199745       5.97295242        0     -16.69918055    -107.50791104    -104.13295586
C        0.54873893       0.75574770       5.16563628        0       1.29044347      91.76879858    -150.63361233
C        1.91566930       0.71885044       5.04837306        0       3.30826838     146.48050000    -135.82108921
C        2.57853394       1.71948765       4.36832316        0     -14.70790659     184.02102119     -89.95985577
C        4.08682132       1.68115384       4.22999501        0     -14.62168643     230.39678140     -63.93236757
F        4.59817864       2.80961517       4.75879622        0     -86.78004820     379.28070033     -78.36529812
F        4.55794803       0.60272324       4.88515223        0      19.23995500     376.75151774    -114.58343699
F        4.39322717       1.60069389       2.92124933        0      20.33505039     399.46455869     -90.97767378
C        1.85867115       2.75454029       3.80686112        0     -35.81359811     185.17794465     -56.00000476
C        0.48384225       2.79196074       3.92996814        0     -37.13485416     136.84219630     -87.41797397
C       -0.33126825       3.90868266       3.31154473        0     -49.19505563     136.02971548     -72.01808051
F       -1.18690101       3.36278027       2.42612301        0    -115.36123680     212.16142982     -72.67481915
F       -1.01431940       4.53298669       4.29050994        0     -34.66187823     229.41606738     -94.33344276
F        0.49666057       4.77202612       2.69266337        0    -113.58041949     216.76786435    -157.71967877
C       -0.16701337       1.78914728       4.61581875        0     -12.37698314      96.31997808    -125.69861520
O        0.51153457      -1.69396945       5.80189072        0       9.91244443    -129.98121799    -104.55477274
C        0.42896671      -2.25363386       4.52724741        0      -8.78042765    -175.47984121     -39.24537063
C       -1.04933901      -2.46355157       4.10652291        0     -10.28660182    -209.15781690      -9.23889609
C       -1.12270238      -2.99425306       2.67032750        0     -23.60010976    -268.27754842      15.36315975
C       -1.70823841      -3.43434888       5.08535615        0      12.45795318    -178.77797111      33.32063198
C       -1.75499394      -1.08509565       4.21039873        0     -30.85335411    -218.42733358     -54.94957993
O       -1.61211400      -0.53718889       5.48637769        0     -17.16401768    -192.71184172    -122.78742350
S        0.99853943      -0.47424740       8.65241839        0     114.99895323     101.55994926     170.43784190
H        0.07559653       0.90831879      12.02430098        0      -1.46451648      -0.29679936       4.63840145
H        0.80380623      -0.67272670      11.74777912        0       0.47456459       0.22272699       3.96233915
H        1.71807147       0.79353228      11.39692064        0      -0.55272172       0.91659815       6.64789997
H       -1.58038211       1.48558742      10.18117657        0       0.28782759       0.74581799       2.24484327
H       -2.02579747       1.12458656       7.61868683        0       1.49786711      -3.03838547       2.72629629
H        2.47440850      -0.08820231       5.49097463        0       1.75371453      13.54104875     -11.12555384
H        2.37141265       3.53491875       3.26686164        0      -4.06744448      17.14257545      -3.34558583
H       -1.23763435       1.82179586       4.72111690        0      -1.22165743       5.62213277     -12.16183586
H        0.94938062      -1.59226195       3.82810259        0      -1.69328902     -17.52747714      -6.48395559
H        0.97013886      -3.20530484       4.55013274        0       0.15672419     -14.10740985      -0.36789028
H       -2.15709941      -3.13425511       2.36033781        0      -2.14789993     -23.81777098       2.47513950
H       -0.65306334      -2.29574148       1.97934318        0      -3.33550632     -23.99968671      -1.10286152
H       -0.61042913      -3.95130992       2.58390180        0      -0.09734059     -21.59318313       3.10501226
H       -2.75981351      -3.58244750       4.84507674        0       0.84132544     -16.31701458       4.57509724
H       -1.21546840      -4.40531121       5.06876719        0       1.68778513     -14.69804621       4.68701955
H       -1.64075699      -3.03404339       6.09637512        0       2.19439986     -11.63042426       1.28412668
H       -1.34634178      -0.37740221       3.48280267        0      -4.38005611     -21.03384824      -8.03092207
H       -2.82791389      -1.18098117       4.01351210        0      -2.77655814     -19.69407815      -2.30856549
70
Properties=species:S:1:pos:R:3:tags:I:1:momenta:R:3 energy=124.42990321201538 pbc="F F F"
F       -3.85778327       1.83237770      -0.90852207        0    -196.34473172      91.48708832      22.01797938
C       -3.49387248       0.53037993      -0.85995431        0    -109.50079391      61.86324578      13.95595068
C       -4.46155440      -0.45648248      -0.89014726        0     -97.67981552      50.55972159      14.18538325
C       -4.09604502      -1.78693817      -0.92461798        0     -81.09786181      55.46761878       3.93879807
F       -5.03228449      -2.76183853      -0.91667455        0    -107.82915912      67.76600319      25.91453152
C       -2.76341429      -2.11576800      -0.97751624        0     -76.86968815      73.45097584     -17.47966216
C       -1.74405451      -1.16222039      -0.85653568        0     -88.11601557      82.32549910      -1.46513250
C        0.36057096      -1.73603224      -0.58975133        0      92.80274331      68.55620133      49.61071358
C        1.75228111      -1.43456641      -0.68845224        0     107.07296972      16.39289916      34.59202535
C        2.69654948      -2.46325193      -0.72188249        0      79.73615189      -8.59481865      60.36145828
C        4.04299365      -2.18939721      -0.75792046        0      87.37135097     -42.21430444      66.37600985
F        4.93061163      -3.19469903      -0.92559357        0     100.02637964    -104.14961509     124.09393523
C        4.46981969      -0.87719419      -0.71722598        0     118.85507587     -51.91805523      49.62356396
C        3.55902627       0.15914817      -0.70028381        0     144.65902329     -28.39338036      16.69929540
F        3.97515829       1.43860871      -0.81230457        0     273.65736233     -63.02675149     -23.92747626
C        2.21848550      -0.12114521      -0.59392099        0     138.24853992       4.66649027      23.13019125
C       -2.16236205       0.17887041      -0.80719310        0    -105.68445734      75.84548473      13.24298397
H       -5.49984393      -0.18954004      -0.96720002        0      -8.46312651       3.22709889       1.27578953
H       -2.52120160      -3.16222817      -0.96684053        0      -5.51883336       6.38424994      -1.34033668
H       -0.46893873      -3.08829103      -0.89816724        0      -7.47523821       3.28602866       0.53915959
H        2.38907727      -3.49169015      -0.71456911        0       4.60218822      -0.10089219       7.08153659
H        5.51705376      -0.64267534      -0.76398138        0      10.42857611      -6.35187399       4.40133117
H        1.55832153       0.68528260      -0.34899004        0      13.21158072       1.52299828       2.57628624
H       -1.45529980       0.97737964      -0.71049552        0      -9.69807657       6.93349715       2.76781656
C        0.71030037       0.36030157      11.59258754        0      -4.02109580       1.69681819      46.37932852
C        0.26032704       0.38507051      10.18933743        0       9.22723418       6.58328739      42.10385445
C       -0.88203933       0.91162936       9.69469369        0       8.74123893      -4.81168268      31.14259505
C       -1.08996611       0.64063869       8.30985439        0      16.85394820     -20.28401905      32.97835202
C       -0.05857516       0.01026946       7.70881892        0      32.51208336      -1.85474825      38.03323281
B       -0.28555128      -0.93819810       5.47164484        0     -14.55479670    -112.33642769    -101.69402121
C        0.56779719       1.17988910       4.53894099        0       7.17258825     101.19865703    -135.63592550
C        1.93209984       1.34881120       4.48511830        0       4.11889293     140.72057258    -121.43909485
C        2.51498904       2.48496552       3.97864280        0     -14.18585472     165.32160026     -87.97634245
C        4.01626091       2.62798467       3.93126812        0     -17.32255658     201.79716648     -72.33147072
F        4.37159034       3.78975423       4.50835561        0     -76.39273422     328.39829914    -102.13745014
F        4.59574877       1.58878021       4.55705291        0       8.37595681     334.98624536    -122.33268111
F        4.41451548       2.63123427       2.64625198        0      -3.99702017     344.82520313    -107.39208957
C        1.70756081       3.51264916       3.54544784        0     -32.99799311     161.00922170     -63.25722831
C        0.33736847       3.36761502       3.54981591        0     -29.77678404     125.78290423     -86.10313763
C       -0.53201171       4.47483837       2.99496120        0     -42.47218756     122.42688477     -72.43945838
F       -1.47216968       3.91998215       2.20911673        0     -90.85227884     190.20413810     -83.80694710
F       -1.11467358       5.12554218       4.02039089        0     -37.46314789     198.61178901    -100.45361093
F        0.20400230       5.34554020       2.27803222        0     -97.72961001     197.29510535    -142.00623899
C       -0.21046022       2.21815572       4.07999921        0      -7.51256826      99.09709396    -118.84976419
O        0.52733442      -2.14885052       5.44500346        0      -0.01073522    -145.80248490    -111.94815500
C        0.38908084      -2.99409661       4.34714293        0      -9.35700216    -162.46014030     -42.91494124
C       -1.09207677      -3.33017909       4.05011066        0      -9.18748607    -186.51270812     -16.47957693
C       -1.21273283      -4.09035622       2.72517195        0     -17.59318447    -232.31536565       9.63753051
C       -1.65669370      -4.16668931       5.19327545        0      11.06938844    -155.65881103      16.09900938
C       -1.87689971      -1.99678210       3.97569055        0     -24.85920931    -197.71473178     -52.29706084
O       -1.66879830      -1.17560110       5.08308546        0     -17.27187386    -194.79249564    -122.24733558
S        1.15359487      -0.35854203       8.90297866        0      74.63813196      40.25383563     135.23164181
H        0.00748842       0.89106156      12.23421514        0      -1.14848738      -0.36005663       3.42074062
H        0.81735500      -0.66654309      11.94068738        0       0.05235257       0.01367220       3.42673942
H        1.68912430       0.82672681      11.69889486        0      -0.54971329       0.36004392       4.94445094
H       -1.56180542       1.50990134      10.28189909        0       0.41946981       0.19718173       1.62223458
H       -1.95170348       0.97071757       7.74759877        0       1.33501993      -2.85183994       2.20615013
H        2.56320358       0.59594014       4.92294304        0       1.64290808      12.64003910     -10.63366444
H        2.16214640       4.37149978       3.07839730        0      -3.92498968      14.90914936      -3.88256755
H       -1.28216121       2.13282559       4.10877553        0      -0.50508445       6.25701732     -11.29968641
H        0.85873760      -2.47561993       3.50693087        0      -1.76595627     -16.30366742      -5.82748782
H        0.97307730      -3.90657474       4.50704878        0      -0.03076850     -12.76312797      -1.27194257
H       -2.25364414      -4.29495780       2.48188654        0      -1.55954640     -20.66477021       2.16353216
H       -0.81038014      -3.47699798       1.92090777        0      -2.69901474     -21.25870895      -1.14303633
H       -0.62293334      -5.00500215       2.72977435        0      -0.36868103     -18.78746863       2.47297850
H       -2.71451078      -4.37619845       5.04199008        0       0.89024646     -14.10423291       2.98353212
H       -1.13480132      -5.11925448       5.26995991        0       1.40816143     -12.66644947       3.03839602
H       -1.53862141      -3.61146814       6.12234378        0       1.72447979     -10.49053553      -0.26557084
H       -1.55928650      -1.42836218       3.09793053        0      -3.77295078     -19.21607055      -6.74778432
H       -2.95485732      -2.15461532       3.89154564        0      -2.09697519     -17.60122526      -2.37193651
70
Properties=species:S:1:pos:R:3:tags:I:1:momenta:R:3 energy=119.99718283542799 pbc="F F F"
F       -4.37665662       2.06938311      -0.83467641        0    -178.37890813      80.07614372      31.41561158
C       -3.95149525       0.78586347      -0.78645187        0     -99.59855448      54.96390397      19.57406171
C       -4.87002654      -0.24627896      -0.81490138        0     -88.89669912      45.51204114      20.11347952
C       -4.43694898      -1.55527181      -0.87833246        0     -74.65855722      50.34667740      16.79537760
F       -5.31959414      -2.57839455      -0.82605095        0     -99.83909722      64.47322179      39.27081302
C       -3.09079657      -1.81114145      -0.99938687        0     -72.40300937      65.59259306       6.95002343
C       -2.11857904      -0.81844424      -0.83417120        0     -82.69323356      74.60287227      11.36409316
C        0.76658073      -1.48170678      -0.37723685        0      91.85337137      48.14154583      47.59736812
C        2.19664700      -1.37395217      -0.51361283        0      96.31120768      11.67652689      45.14010302
C        3.03334847      -2.48907115      -0.44523428        0      74.08485021      -3.56535061      66.05757702
C        4.40282264      -2.34837426      -0.45695854        0      77.25269291     -30.70163383      70.98604464
F        5.18937268      -3.44212209      -0.57447859        0      87.79507456     -75.31429729     128.81579933
C        4.95399782      -1.08242892      -0.48152709        0     102.41705792     -41.75263703      57.85958086
C        4.15006905       0.03548436      -0.59198314        0     125.23965356     -27.49844223      32.71791986
F        4.67803358       1.26109935      -0.80710587        0     234.49400841     -63.37506308      26.79990826
C        2.78785817      -0.11069815      -0.47292636        0     121.73869011       0.41859382      32.29781159
C       -2.60547736       0.49442388      -0.73402516        0     -96.74640749      68.27443073      20.02685280
H       -5.92007558      -0.02933489      -0.88821587        0      -7.65026559       2.91398850       1.74058991
H       -2.80005570      -2.84514225      -0.98397555        0      -5.16511449       5.75882619       0.65484786
H       -0.81912131      -2.83865372      -0.80818418        0      -5.98807763       6.06320385       2.82087186
H        2.62948276      -3.47913042      -0.34100543        0       4.59251242       0.52981381       7.22427628
H        6.01979847      -0.94778620      -0.51920625        0       8.84953143      -5.31562647       4.97267707
H        2.20867030       0.74982945      -0.20743274        0      11.69139843       0.98118876       2.87616653
H       -1.94285757       1.32045447      -0.56991798        0      -8.96233678       6.21463327       2.64614719
C        0.69205061       0.35785826      11.76699080        0      -4.25395023      -2.69108400      33.48464408
C        0.29204087       0.38978111      10.34823681        0       5.34682048      -4.13762254      30.64668875
C       -0.84704472       0.88005200       9.81018918        0       7.19991541      -9.46343129      21.78278594
C       -1.02179877       0.55108233       8.43310803        0      13.98241653     -20.46169205      23.45839928
C        0.05972587      -0.02207194       7.85870413        0      21.67939953     -12.71760524      30.15970034
B       -0.35188410      -1.49174300       4.98622562        0     -12.85089442    -114.65296424     -97.04267112
C        0.60838301       1.63520010       3.97510972        0      10.86268396     105.55887848    -121.85410527
C        1.95166265       1.94853419       3.98166260        0       4.87839472     132.52308139    -108.69441958
C        2.45574186       3.16863985       3.59516096        0     -12.59659911     146.84290565     -87.48028615
C        3.93863677       3.45062355       3.59650383        0     -17.54659962     173.82175194     -80.46253457
F        4.17805351       4.63122376       4.19573668        0     -62.59633090     279.74231607    -122.86136910
F        4.60674907       2.45733948       4.20691351        0       0.04494286     291.65010997    -130.52299792
F        4.37936852       3.51288307       2.32649458        0     -19.32372651     291.90402121    -123.52981498
C        1.57179634       4.16862007       3.25217703        0     -28.57595588     138.90156818     -70.75167941
C        0.22199707       3.89420101       3.17435633        0     -23.01448788     114.67649936     -85.49747379
C       -0.70374521       4.98278603       2.67684877        0     -35.90918389     109.65309110     -72.75619520
F       -1.69274508       4.41704696       1.96282375        0     -68.99551678     168.67256945     -93.79764662
F       -1.22015849       5.63557897       3.73606505        0     -38.41532114     170.13125170    -104.25985241
F       -0.04500274       5.86655684       1.90278287        0     -82.03348909     179.39221250    -129.59376410
C       -0.23372487       2.65319823       3.57493295        0      -3.22974964      98.85158456    -111.51941591
O        0.51472071      -2.64637885       5.07266556        0      -6.93626709    -155.37268758    -112.57576781
C        0.34831792      -3.67770301       4.15115281        0      -9.00223626    -149.62582268     -46.60089031
C       -1.12920321      -4.10029818       3.96284204        0      -7.63329189    -165.34373456     -23.20116155
C       -1.27806977      -5.03509764       2.75392641        0     -12.38879800    -199.67225705       3.33588365
C       -1.61184825      -4.80199255       5.22865943        0       9.24419624    -134.91431046       0.36125447
C       -1.97341221      -2.81856611       3.75045133        0     -19.24143708    -177.49561993     -50.75127589
O       -1.72545827      -1.81295611       4.68544225        0     -17.10194271    -191.53215296    -118.55825325
S        1.24679703      -0.33831120       9.09842842        0      40.08507817     -14.27191283     103.59780354
H       -0.04469557       0.87137926      12.38410833        0      -0.85181306      -0.38404783       2.35028530
H        0.81087636      -0.67127845      12.10546043        0      -0.27777426      -0.19445640       2.88141543
H        1.66154156       0.83231543      11.91604509        0      -0.49562855      -0.12669950       3.39745889
H       -1.53762625       1.50750984      10.35194451        0       0.48980481      -0.27688907       1.07649920
H       -1.88710565       0.82788148       7.84794652        0       1.13027255      -2.60148463       1.61815610
H        2.64539086       1.22914111       4.38011722        0       1.50046075      11.58829011     -10.16614408
H        1.96495981       5.09387893       2.85981781        0      -3.58481036      12.79147249      -4.51062780
H       -1.29329352       2.47114076       3.54043437        0       0.04335734       6.65998717     -10.47691840
H        0.76807873      -3.29256360       3.21719039        0      -1.65882141     -14.94533173      -5.30716224
H        0.96880634      -4.54035032       4.41827171        0      -0.11287626     -11.54728019      -2.12369800
H       -2.32107660      -5.29620712       2.58303394        0      -1.03330295     -17.73996605       1.66509739
H       -0.93563841      -4.51764863       1.85931755        0      -2.10339049     -18.62783156      -1.21944228
H       -0.64581846      -5.91696444       2.84062465        0      -0.46023472     -16.19359023       1.75316617
H       -2.66831739      -5.05851259       5.15807092        0       0.85358332     -12.07505627       1.47011698
H       -1.06776133      -5.73165184       5.38830251        0       1.16449121     -10.84298002       1.51466921
H       -1.46036160      -4.13035456       6.07240928        0       1.27043227      -9.39691861      -1.60178807
H       -1.73914284      -2.38365347       2.77329314        0      -3.09585003     -17.37644460      -5.74400834
H       -3.04830528      -3.01918273       3.76416403        0      -1.49659057     -15.51635707      -2.53081403
70
Properties=species:S:1:pos:R:3:tags:I:1:momenta:R:3 energy=118.24017359028889 pbc="F F F"
F       -4.84657605       2.27849213      -0.73423690        0    -160.87113866      71.18004359      40.84416325
C       -4.36818142       1.01381607      -0.68857568        0     -90.49760643      49.24066889      25.08475726
C       -5.24147770      -0.05656785      -0.71427832        0     -80.56702043      41.19899980      25.79243977
C       -4.75113100      -1.34495978      -0.78052919        0     -68.59350237      45.71898315      27.60160755
F       -5.58635753      -2.40555804      -0.70052146        0     -92.65650380      60.30700358      51.05119097
C       -3.39641454      -1.54068606      -0.92187529        0     -66.81714978      57.98886101      27.63197643
C       -2.46742591      -0.50819944      -0.75951250        0     -76.31461075      67.07695867      22.47307521
C        1.15947352      -1.30769343      -0.17081559        0      86.57478608      32.49638351      46.77055424
C        2.59976732      -1.32882548      -0.29383246        0      87.43611061       9.19726399      54.88349582
C        3.34599505      -2.49739424      -0.14252298        0      68.36426539      -0.42213692      71.80700774
C        4.72279915      -2.46156815      -0.13644172        0      68.86275614     -21.33397802      74.96241826
F        5.42174201      -3.61683424      -0.21495076        0      80.27168537     -51.84401827     130.19961558
C        5.36972682      -1.24341060      -0.21141538        0      87.55321618     -31.87884756      65.16615099
C        4.65774029      -0.07711879      -0.41411118        0     106.59391366     -23.43017241      48.30332098
F        5.27779299       1.09642334      -0.66986163        0     198.71334199     -54.32779285      70.53654615
C        3.28613296      -0.11450884      -0.30902216        0     105.64169224      -1.71842731      42.83444156
C       -3.01128780       0.77812743      -0.63261199        0     -88.37534280      61.34586231      26.21527202
H       -6.29992188       0.11539438      -0.78651300        0      -6.89313050       2.64138999       2.14559995
H       -3.06040317      -2.56089534      -0.90235291        0      -4.78956810       5.13804840       2.41336589
H       -1.09927540      -2.47820020      -0.61330966        0      -4.77969630       7.49067072       4.52113247
H        2.86689466      -3.44175061       0.03874200        0       4.47609200       0.85039758       7.27861411
H        6.44353186      -1.19615303      -0.24519032        0       7.41235917      -4.19372798       5.50942980
H        2.77789964       0.79111519      -0.04618026        0      10.07789636       0.63492583       3.30315986
H       -2.38959446       1.62723026      -0.43122777        0      -8.13289804       5.55345294       2.69000924
C        0.67346753       0.33784813      11.88893392        0      -4.20173696      -6.29667191      22.70954184
C        0.30806860       0.35196827      10.46045400        0       2.03574499     -12.57225178      21.06795810
C       -0.81928442       0.83019716       9.88787595        0       5.40937935     -13.02212278      14.06248047
C       -0.96935105       0.46232731       8.51755188        0       9.95434337     -20.00658555      15.45248010
C        0.13357175      -0.09874188       7.97204732        0      12.41921783     -21.72704409      21.80200782
B       -0.41205946      -2.04940851       4.53232235        0     -11.94032307    -113.35243535     -89.06701219
C        0.65886955       2.09499464       3.46963222        0      11.74226022     102.79499906    -109.06710159
C        1.97521228       2.50527378       3.52833655        0       5.77918879     120.69538972     -99.14653868
C        2.40651202       3.77226413       3.20883407        0      -9.81084485     128.42726538     -88.98249881
C        3.86681930       4.15261905       3.22675171        0     -14.87335661     146.74033568     -88.05183941
F        4.02770989       5.34330844       3.83192289        0     -45.93900871     234.91900486    -138.94396922
F        4.59919078       3.20301149       3.83345672        0      -4.58619832     246.66785735    -139.31993059
F        4.31771691       4.25027911       1.96230669        0     -23.92745802     241.06213362    -138.87154745
C        1.46004811       4.73378729       2.92495794        0     -22.28830423     119.26195589     -78.31621755
C        0.13442588       4.37265839       2.79926625        0     -17.13658946     103.27547769     -85.49144618
C       -0.84669393       5.43689907       2.35757437        0     -29.32809915      97.32724105     -72.82254603
F       -1.85797486       4.85427393       1.69112836        0     -50.93719954     146.73817238    -101.77662958
F       -1.32532934       6.07068710       3.44552135        0     -36.74277951     144.20418550    -105.18175480
F       -0.25094339       6.34110594       1.55653241        0     -67.01327484     162.70020558    -120.80994136
C       -0.24014048       3.07834480       3.10385308        0       0.02904572      94.17651607    -103.41176911
O        0.48632553      -3.16154685       4.71387591        0      -9.68996315    -155.84414657    -105.43202131
C        0.31195271      -4.30527239       3.93847378        0      -7.53804584    -136.48750968     -50.36077869
C       -1.15822493      -4.78188006       3.84784656        0      -5.66006387    -145.83927596     -29.28720430
C       -1.32281025      -5.84675062       2.75289620        0      -8.27209080    -171.31632479      -4.07073112
C       -1.57665006      -5.35399068       5.19923871        0       6.85114635    -117.40353352     -13.45444018