70
Properties=species:S:1:pos:R:3:tags:I:1:momenta:R:3:forces:R:3 energy=135.09704566852326 pbc="F F F"
F       -3.28831965       1.56059654      -0.95676815        0    -227.29131142      71.87828468      64.42677695      -0.51359967       2.06396470      -0.10295138
C       -2.99066559       0.24207331      -0.90893525        0    -135.68293251      47.07000518      37.37893375      -0.46148591       1.24459866      -0.09820396
C       -4.01317401      -0.69051956      -0.93902410        0    -125.86362875      39.60627939      -0.01304393      -0.90072260       0.28718294      -0.04340678
C       -3.72544435      -2.04159573      -0.91005663        0    -113.72496057      42.04619721      -5.29024128      -1.09415727      -0.80331798      -0.10963447
F       -4.72083731      -2.95350329      -0.96844434        0    -166.92730630      53.23049391     -29.09465746      -1.59208563      -1.42057872      -0.10677940
C       -2.41816098      -2.45524029      -0.84194269        0    -111.20898808      54.67370592      10.49838728      -0.25493875      -0.74396024      -0.16792036
C       -1.34748296      -1.53997032      -0.81918766        0    -116.40448730      60.69257654      38.78136787       0.26145066      -0.07384176      -0.20231799
C       -0.04191695      -2.08739171      -0.81350791        0     100.89279781      -5.61903506     103.07064860       0.06766233      -0.04808482      -0.19847686
C        1.25595335      -1.51959916      -0.81610788        0     108.97525497     -25.93576454     102.93441583      -0.23356137      -0.13296731      -0.10542749
C        2.33443660      -2.41138917      -0.97468842        0      94.92037697     -26.20545081      67.77569261       0.22308314      -0.76721539      -0.10171044
C        3.63493732      -1.97594397      -1.03789322        0      91.47409160     -19.61007109      40.09517039       1.06048116      -0.80887663      -0.16490415
F        4.63159334      -2.86119713      -1.25924336        0     144.12957459     -26.70980500      43.83850729       1.58393816      -1.38008873      -0.34410400
C        3.91070185      -0.62728860      -0.91562902        0      88.66321741     -20.91586572      48.05436450       0.87740903       0.25814989      -0.07092644
C        2.88119336       0.28149105      -0.73801113        0      97.93328273     -20.59416801      74.14797853       0.43181974       1.19256600       0.00164922
F        3.15904234       1.60376053      -0.66987448        0     120.45752463     -34.17840909     117.35556576       0.47634392       2.06165747       0.01799693
C        1.57576682      -0.15388321      -0.67697730        0     107.75179908     -30.96325225     108.09755830      -0.07674356       0.53264994      -0.08154012
C       -1.67845167      -0.17080017      -0.84958378        0    -134.76130110      53.81722609      55.55570673       0.06344876       0.59022428      -0.11748428
H       -5.03514801      -0.36704654      -1.02103814        0     -10.59848309       2.75341349      -1.18218051      -2.13178618       0.67652522      -0.16601431
H       -2.22353484      -3.51168159      -0.84113688        0      -9.05795595       4.79615989       2.11464563       0.30194698      -2.25627494      -0.02456534
H       -0.03496013      -3.16507025      -0.85702909        0       8.06116164      -0.68388163       7.51839256       0.02700159      -2.26486824      -0.10748363
H        2.15020636      -3.46438307      -1.08003864        0       7.51405946      -2.07353848       5.55171259      -0.28491928      -2.24471243      -0.22927370
H        4.92867280      -0.28577719      -0.97800611        0       6.49517924      -0.81793558       0.30898442       2.11974744       0.71020420      -0.13105332
H        0.82989100       0.58798350      -0.47877920        0       8.97623899      -2.68953165       8.70304273      -1.27748634       1.63807654       0.43320869
H       -0.93122731       0.59545901      -0.86151017        0     -11.76245640       4.85874410       5.14084711       1.26928425       1.69834206      -0.06869704
C        0.72702595       0.34215739      11.35855406        0      13.52368235     -19.94332896      11.25067012       0.17857777      -0.01276738       0.41422941
C        0.21028037       0.32996199       9.97762905        0      11.27674605      -2.94973894      13.48610384       0.59577209      -0.30896203       0.31085441
C       -0.92353733       0.92134725       9.53605488        0      11.70621282       1.47861159      19.46088392      -0.74697320       0.54196923       0.44786667
C       -1.16806357       0.72821598       8.14317940        0      13.50141257      24.46020427      18.71346395      -0.91362022       0.53195411       0.31232877
C       -0.22667280      -0.00724726       7.52629061        0      23.29988356      42.05905601      15.94639879       0.41502921      -0.44844683       0.26900463
B       -0.20945074      -0.40199745       5.97295242        0     -22.14344083      -8.33606263     -59.58100060      -0.07119074       0.01433359       0.92982855
C        0.54873893       0.75574770       5.16563628        0     -47.40968031       5.08880621     -89.79011376      -0.01027859       0.08265057       0.30605002
C        1.91566930       0.71885044       5.04837306        0     -47.02764262      31.34005606     -72.84014582       0.67786483      -0.14267646       0.22805581
C        2.57853394       1.71948765       4.36832316        0     -41.70209979      33.69072491     -65.31788732       0.73707800       0.14690024      -0.04132753
C        4.08682132       1.68115384       4.22999501        0      80.32574540     113.22837770     -59.48545635       1.09322713       0.03546685      -0.04930947
F        4.59817864       2.80961517       4.75879622        0      96.95557106     174.37083684     -64.17366745       1.20880670       1.77456491       0.87446025
F        4.55794803       0.60272324       4.88515223        0     150.81883726     184.61061995    -100.80173490       1.32716267      -1.62278660       0.94744936
F        4.39322717       1.60069389       2.92124933        0     169.91576646     207.92008063     -79.94363439       0.91046916      -0.15067820      -2.02807212
C        1.85867115       2.75454029       3.80686112        0     -45.02719547      39.66203043     -51.87148795       0.39035384       0.66101594      -0.32472217
C        0.48384225       2.79196074       3.92996814        0     -45.93473749      31.14289513     -63.66558984      -0.21523436       0.69651912      -0.26298918
C       -0.33126825       3.90868266       3.31154473        0     -43.14269865      38.39200901     -53.89532771      -0.50819040       0.88543395      -0.42019789
F       -1.18690101       3.36278027       2.42612301        0     -88.33307153      82.02407215     -76.48438973      -1.51723523      -0.49218614      -1.60044309
F       -1.01431940       4.53298669       4.29050994        0     -43.78136782      66.24116132     -71.84545929      -1.23372293       1.36053382       1.41092134
F        0.49666057       4.77202612       2.69266337        0     -76.54192846      58.67841502    -100.11721710       0.97330367       1.73684115      -1.15233431
C       -0.16701337       1.78914728       4.61581875        0     -41.22682453      18.29042181     -74.73254969      -0.53355812       0.51576502       0.01340948
O        0.51153457      -1.69396945       5.80189072        0     -58.33339665     -29.87026993     -76.94007662       1.40833665      -1.26397812       1.71714545
C        0.42896671      -2.25363386       4.52724741        0     -49.95254128     -66.22273738     -31.19052625       0.88911959      -0.84461363       0.00418965
C       -1.04933901      -2.46355157       4.10652291        0     -51.53142823     -67.25256559     -28.50119762      -0.24950820      -0.61384086      -0.39194196
C       -1.12270238      -2.99425306       2.67032750        0     -55.93787880     -85.88374150     -21.00632880      -0.11969988      -0.63233778      -0.47457542
C       -1.70823841      -3.43434888       5.08535615        0     -62.98746358     -44.80286685     -15.71678925      -0.60561910      -1.03025482       0.40005105
C       -1.75499394      -1.08509565       4.21039873        0     -36.85427106     -57.29456794     -54.13011564      -1.13810039       0.24650550      -0.22040233
O       -1.61211400      -0.53718889       5.48637769        0     -49.13262021     -39.88044924     -91.71425409      -2.16027937       0.66723899       1.17183835
S        0.99853943      -0.47424740       8.65241839        0      52.10934818      52.76282416      28.89447485       2.35980332      -1.50916956       0.52174878
H        0.07559653       0.90831879      12.02430098        0       0.78172740      -2.61903681       1.26332900      -1.06242631       1.02357994       1.50222523
H        0.80380623      -0.67272670      11.74777912        0       1.38905217      -1.96210791      -0.17173449       0.20832002      -1.83615779       1.01315241
H        1.71807147       0.79353228      11.39692064        0       0.84031159      -1.19278274       1.64557211       1.88718044       0.85859765       0.36727720
H       -1.58038211       1.48558742      10.18117657        0       0.39283825      -1.13612489       1.91005521      -1.41958297       1.18322701       1.25374441
H       -2.02579747       1.12458656       7.61868683        0       0.58881665       1.53998124       2.14595886      -1.87071195       0.92686940      -0.82878027
H        2.47440850      -0.08820231       5.49097463        0      -4.04164122       1.93441879      -7.52857187       1.30014988      -1.61321655       0.88090610
H        2.37141265       3.53491875       3.26686164        0      -3.85698125       3.44432550      -4.28827733       1.11275306       1.63151710      -1.11917163
H       -1.23763435       1.82179586       4.72111690        0      -3.59116520       0.82505791      -9.34577149      -2.26326035       0.26477112       0.18486411
H        0.94938062      -1.59226195       3.82810259        0      -3.26578492      -8.53617593      -4.28871493       1.33277012       0.86513795      -1.55648642
H        0.97013886      -3.20530484       4.55013274        0      -4.72952230      -5.85732071      -0.48449359       1.33924289      -1.87279613      -0.02673595
H       -2.15709941      -3.13425511       2.36033781        0      -4.75086749      -6.06075878      -2.09000593      -1.89300271      -0.43397914      -0.76259447
H       -0.65306334      -2.29574148       1.97934318        0      -3.91435437      -7.95103814      -2.10865774       0.82348915       1.04604907      -1.31749486
H       -0.61042913      -3.95130992       2.58390180        0      -5.43287895      -7.70119476      -0.49633934       0.90270924      -1.89275322      -0.43698123
H       -2.75981351      -3.58244750       4.84507674        0      -5.31130979      -3.24778985      -1.66738418      -2.07852017      -0.54369514      -0.22856504
H       -1.21546840      -4.40531121       5.06876719        0      -6.13577562      -4.23408400       0.00501689       0.71314612      -2.03340957       0.17286286
H       -1.64075699      -3.03404339       6.09637512        0      -4.96966741      -2.36797552      -2.03559822      -0.20704211       0.18935988       2.06868164
H       -1.34634178      -0.37740221       3.48280267        0      -1.57051576      -6.62763672      -4.97784459       0.33098258       1.37095036      -1.69224737
H       -2.82791389      -1.18098117       4.01351210        0      -2.73555348      -4.59034707      -5.17048216      -2.24002146       0.03159874      -0.49775258
70
Properties=species:S:1:pos:R:3:tags:I:1:momenta:R:3:forces:R:3 energy=133.39766499306666 pbc="F F F"
F       -3.40736421       1.59831243      -0.92298821        0    -225.02847966      71.42962152      63.93313546      -0.51798063       2.05723996      -0.09521774
C       -3.10312908       0.28114544      -0.87793191        0    -134.46922276      46.78835308      37.10157268      -0.43408461       1.23040791      -0.07292401
C       -4.11737425      -0.65739091      -0.93872117        0    -124.44166479      39.97047812       0.74139233      -0.88508993       0.27391425      -0.06538535
C       -3.81967893      -2.00641677      -0.91415713        0    -112.63989181      42.45497703      -4.55848042      -1.05789395      -0.80763267      -0.13599740
F       -4.80829121      -2.92515043      -0.98341446        0    -165.36176250      54.48953294     -27.78366157      -1.57695534      -1.42957344      -0.12574015
C       -2.51040730      -2.40977823      -0.83300395        0    -110.37852404      54.53155423      10.97630084      -0.11152480      -0.70968238      -0.21281906
C       -1.44423887      -1.48966621      -0.78691073        0    -116.01185115      60.14584304      38.75769240       0.63954223      -0.19247429      -0.23399248
C        0.04177473      -2.09233198      -0.72793822        0     100.14269416      -6.24156379     102.48150338      -0.30765095       0.11895430      -0.14494537
C        1.34618296      -1.54107625      -0.73077371        0     107.76872612     -25.65380529     102.05673307      -0.36306042      -0.13250915      -0.05210221
C        2.41310109      -2.43300326      -0.91815388        0      94.04157359     -25.71590421      68.03022294       0.19956481      -0.77796710      -0.10641488
C        3.71058302      -1.99217767      -1.00416752        0      90.23839731     -19.38508947      40.91732264       1.05434693      -0.80981211      -0.20354078
F        4.70690447      -2.87516664      -1.23576188        0     142.02336489     -26.36834158      45.37822391       1.58267086      -1.37626093      -0.36366144
C        3.98403139      -0.64455725      -0.87565124        0      87.48410322     -20.56621762      47.98265358       0.87620492       0.24001215      -0.05031749
C        2.96222824       0.26441193      -0.67650811        0      96.72473528     -20.43069008      73.59772499       0.42942113       1.18988944      -0.00457422
F        3.22218735       1.58586363      -0.60844161        0     119.46614330     -33.82033492     116.07601169       0.46070964       2.07308617       0.00906534
C        1.66505891      -0.17941255      -0.58751708        0     106.73762015     -30.36241782     106.80685201      -0.17846575       0.50796808      -0.02496447
C       -1.79023850      -0.12619629      -0.80357035        0    -133.76432519      53.32934646      54.98240834       0.19674036       0.53186445      -0.07710928
H       -5.13963130      -0.33944902      -1.03235786        0     -10.46500649       2.80976706      -1.09988616      -2.13437213       0.66418905      -0.19238485
H       -2.31314574      -3.46422493      -0.82026837        0      -9.00693151       4.77086545       2.09286076       0.34383554      -2.23526721      -0.00926112
H        0.04465365      -3.17189855      -0.78272243        0       7.98844345      -0.69253121       7.46190003      -0.07936089      -2.17648160      -0.11620316
H        2.22436347      -3.48474697      -1.02485532        0       7.43555821      -2.03178255       5.57305872      -0.29743172      -2.24253839      -0.23306311
H        4.99238864      -0.29399896      -0.97426907        0       6.34996824      -0.83918472       0.44389711       2.12256237       0.72997992      -0.20313361
H        0.91845875       0.56148653      -0.39297052        0       8.87851267      -2.65196529       8.59634396      -1.37271122       1.61400412       0.41814900
H       -1.04741993       0.64340461      -0.81072026        0     -11.66134817       4.80700799       5.09876747       1.37013880       1.66802162      -0.04364722
C        0.73803567       0.32556687      11.36764369        0      12.92524307     -19.90920387      10.58713553       0.18521334      -0.01950268       0.41223179
C        0.21955833       0.32706366       9.98847567        0      11.01007143      -4.00705087      12.57421391       0.58807301      -0.31354019       0.29571896
C       -0.91386569       0.92207924       9.55166648        0      11.52611624       0.28513701      18.04740476      -0.73553593       0.53642273       0.44033955
C       -1.15678926       0.74758144       8.15814777        0      13.57863716      22.06872157      17.25049752      -0.88116712       0.52987318       0.24282560
C       -0.20746846       0.02634654       7.53902248        0      22.83311539      38.65352432      14.64631109       0.47492784      -0.42629231       0.07811059
B       -0.23009927      -0.40994176       5.91767936        0     -22.48980371      -8.83721234     -59.91807640      -0.07772536       0.07090970       1.00984017
C        0.50949102       0.75987946       5.09156747        0     -46.86856061       4.83543479     -88.14378735      -0.05935188       0.00142248       0.26969134
C        1.87663175       0.74455027       4.98812580        0     -46.74287696      30.39724590     -71.89094136       0.72917542      -0.12385371       0.21817726
C        2.54379078       1.74727242       4.31443257        0     -41.75121136      33.05249932     -64.14479133       0.92777181       0.07746359      -0.06797897
C        4.15336644       1.77477234       4.18032493        0      79.52268826     111.65756121     -59.83001482       0.85453347       0.06787133      -0.00891824
F        4.64891016       2.90087021       4.72445608        0      95.80138342     172.36096776     -66.30044571       1.10422716       1.75441117       0.88174521
F        4.63686953       0.69938530       4.83203996        0     149.05143369     182.66515416    -101.00512831       1.24649530      -1.59327805       0.94975974
F        4.48178685       1.70925425       2.87892014        0     166.58141817     204.56764229     -80.89213760       0.88721106      -0.10091517      -1.97325177
C        1.82116701       2.78716893       3.76411084        0     -45.05894939      38.71824659     -50.82908936       0.43270883       0.63303152      -0.28035936
C        0.44563892       2.81746488       3.87757555        0     -45.83206116      30.12449985     -62.19876000      -0.21513083       0.67316451      -0.25606228
C       -0.36723098       3.94010123       3.26722998        0     -43.24113019      37.08414753     -52.56441513      -0.50194254       0.87466443      -0.40689282
F       -1.23316976       3.40518105       2.38633693        0     -87.47021174      79.09354525     -74.69997256      -1.53214666      -0.47896581      -1.58938496
F       -1.03764031       4.56713443       4.25312023        0     -44.81811774      63.51732631     -70.23147939      -1.21362687       1.35818790       1.42828437
F        0.45633359       4.80248149       2.64075183        0     -76.67763281      57.04355650     -97.14555255       0.97081414       1.72994865      -1.16092956
C       -0.20128884       1.80402881       4.55405901        0     -41.10416090      17.45962383     -73.63056863      -0.53526564       0.47133249       0.06315064
O        0.47520993      -1.71278994       5.75380697        0     -57.89150842     -30.34672394     -76.92000083       1.39835712      -1.16298063       1.73680887
C        0.38760504      -2.30837746       4.50137133        0     -49.40278613     -65.28229781     -30.97499627       0.87864236      -0.81553490       0.05333443
C       -1.09188980      -2.51910399       4.08268346        0     -50.68367268     -66.19616957     -28.76792480      -0.23986553      -0.61623457      -0.35610873
C       -1.16891538      -3.06525284       2.65279200        0     -55.07514151     -84.67215487     -21.12007954      -0.12559797      -0.66407185      -0.47869308
C       -1.76022040      -3.47126514       5.07193040        0     -61.88323146     -43.87865034     -16.53282498      -0.60627816      -1.00985416       0.42459605
C       -1.78533420      -1.13265159       4.16535303        0     -36.03027006     -56.94164305     -54.08163064      -1.12143423       0.26558740      -0.18308403
O       -1.64228621      -0.56213309       5.42893400        0     -47.41721097     -39.93424572     -92.09570058      -2.10422038       0.72430277       1.22055110
S        1.01457754      -0.45875018       8.66108484        0      50.72548753      46.62834848      26.69326654       2.36004718      -1.49440422       0.41232395
H        0.08314884       0.88257628      12.03645164        0       0.74090507      -2.57066872       1.18649080      -1.07087944       1.00675501       1.51392582
H        0.81733917      -0.69209955      11.74613203        0       1.33918762      -1.94338447      -0.16032384       0.21384061      -1.84917877       0.99662929
H        1.72621694       0.78161332      11.41278998        0       0.80190470      -1.20991555       1.55406532       1.88433213       0.86487256       0.38009388
H       -1.57646521       1.47408926      10.19942865        0       0.39665746      -1.18157316       1.77010836      -1.43294237       1.16263408       1.26573280
H       -2.01978396       1.13888573       7.63916020        0       0.62314771       1.34358530       1.98223599      -1.86747189       0.90780571      -0.83439380
H        2.43458996      -0.06915018       5.41674761        0      -3.98553608       1.90631118      -7.43587760       1.32929823      -1.61182365       0.83678125
H        2.33308701       3.56876018       3.22479779        0      -3.86889753       3.37804034      -4.19222744       1.11489155       1.62303502      -1.10830680
H       -1.27292224       1.82987878       4.62930840        0      -3.52287967       0.80432601      -9.16348745      -2.27357827       0.21822335       0.14287087
H        0.91689002      -1.67642165       3.78615425        0      -3.28360987      -8.43021923      -4.16918991       1.35770467       0.84274324      -1.56710482
H        0.92332396      -3.26288201       4.54509723        0      -4.70773616      -5.75039280      -0.53086725       1.32496821      -1.87826979       0.01926078
H       -2.20380199      -3.19411189       2.33958879        0      -4.66456778      -6.00618897      -2.09315866      -1.89329033      -0.42228493      -0.76935875
H       -0.69175961      -2.37419146       1.95827937        0      -3.88665698      -7.86439895      -2.13786184       0.82908271       1.01643399      -1.32322978
H       -0.66390967      -4.02706652       2.57887528        0      -5.34880311      -7.57145602      -0.51723028       0.88693740      -1.90456575      -0.41611746
H       -2.81201400      -3.61437307       4.82826619        0      -5.21236135      -3.18844834      -1.72149992      -2.07992948      -0.52951044      -0.22861128
H       -1.27589100      -4.44679307       5.06836788        0      -6.04520147      -4.12885404      -0.08525424       0.69719810      -2.03402725       0.20057262
H       -1.68962214      -3.05734141       6.07590272        0      -4.88147665      -2.32880714      -2.09161215      -0.19825837       0.23235574       2.07090757
H       -1.36190092      -0.44292623       3.43343304        0      -1.56614465      -6.58181867      -4.97530681       0.37222353       1.35744572      -1.70667928
H       -2.85483263      -1.22633309       3.96239360        0      -2.69123525      -4.55245345      -5.13525937      -2.24219122       0.03885839      -0.50861368
70
Properties=species:S:1:pos:R:3:tags:I:1:momenta:R:3:forces:R:3 energy=131.9338411931668 pbc="F F F"
F       -3.52519948       1.63579145      -0.88945719        0    -222.69636205      70.97818997      63.48091651      -0.52377838       2.05147247      -0.08757659
C       -3.21456294       0.31998128      -0.84714881        0    -133.20953022      46.50235868      36.84985890      -0.41472663       1.21860516      -0.04797337
C       -4.22037927      -0.62397123      -0.93778849        0    -122.99244475      40.30540971       1.49975459      -0.87238005       0.26248726      -0.08618222
C       -3.91299646      -1.97091176      -0.91764458        0    -111.52199695      42.82945964      -3.81751183      -1.02681449      -0.81210692      -0.16088111
F       -4.89490868      -2.89615345      -0.99768921        0    -163.74906912      55.67797111     -26.45247423      -1.56265486      -1.43833311      -0.14438831
C       -2.60194566      -2.36444377      -0.82366216        0    -109.50828369      54.36720120      11.46663068       0.00787818      -0.68197905      -0.24843176
C       -1.54064116      -1.43982257      -0.75464496        0    -115.55507339      59.58644258      38.75456097       0.95575880      -0.28065400      -0.23911090
C        0.12482030      -2.09777330      -0.64286730        0      99.34074539      -6.82269133     101.87266881      -0.62130349       0.25582219      -0.11752156
C        1.43539405      -1.56231184      -0.64616679        0     106.52852281     -25.35561997     101.18739151      -0.46477206      -0.13606293      -0.00313524
C        2.49101921      -2.45420966      -0.86141083        0      93.12745830     -25.22601595      68.27655599       0.18174278      -0.78900632      -0.11126274
C        3.78519088      -2.00822046      -0.96976576        0      88.98098002     -19.15143772      41.71921704       1.04881676      -0.81060861      -0.24078506
F        4.78109855      -2.88895394      -1.21147848        0     139.88506980     -26.01735252      46.88555712       1.58130691      -1.37244693      -0.38284720
C        4.05636703      -0.66153307      -0.83572720        0      86.27571620     -20.21235583      47.92523698       0.87814610       0.22385860      -0.03165028
C        3.04224696       0.24747541      -0.61545539        0      95.49224584     -20.25163416      73.06624493       0.43100009       1.18760619      -0.01053379
F        3.28479913       1.56816115      -0.54767236        0     118.43136526     -33.43970163     114.83396313       0.44540826       2.08351769      -0.00087435
C        1.75348659      -0.20443936      -0.49912382        0     105.67538338     -29.75604556     105.53448329      -0.25492670       0.48454273       0.02969009
C       -1.90117353      -0.08200083      -0.75802264        0    -132.71511516      52.83606484      54.43694723       0.30429058       0.48296190      -0.03556957
H       -5.24278016      -0.31130669      -1.04286144        0     -10.32945585       2.86324962      -1.01764370      -2.13626716       0.65243221      -0.21827966
H       -2.40223047      -3.41702626      -0.79960361        0      -8.95187693       4.74415149       2.07357281       0.37908128      -2.21901848       0.00693961
H        0.12353016      -3.17880751      -0.70897413        0       7.91252940      -0.70013959       7.40582903      -0.16544696      -2.10727340      -0.13057819
H        2.29772821      -3.50469540      -0.96946575        0       7.35431719      -1.98977742       5.59329484      -0.30873497      -2.24077136      -0.23700043
H        5.05466492      -0.30241998      -0.96920861        0       6.20496397      -0.85810496       0.57579167       2.12131262       0.74864209      -0.27368916
H        1.00604190       0.53537090      -0.30820976        0       8.77774356      -2.61265692       8.49177910      -1.44009794       1.59773712       0.40788358
H       -1.16259079       0.69083455      -0.76033684        0     -11.55646889       4.75478687       5.05889693       1.43513681       1.64504223      -0.02293051
C        0.74855059       0.30900776      11.37618759        0      12.33507521     -19.86791256       9.93969968       0.19103904      -0.02606536       0.41033021
C        0.22861253       0.32329897       9.99857441        0      10.73925698      -5.03093580      11.68946178       0.58060218      -0.31845182       0.28188017
C       -0.90434619       0.92183098       9.56611646        0      11.34077959      -0.87612577      16.67039687      -0.72516627       0.53136952       0.43323346
C       -1.14545839       0.76497881       8.17191539        0      13.63729970      19.73244099      15.82894501      -0.85129687       0.52845867       0.17917592
C       -0.18865196       0.05713883       7.55069233        0      22.36814287      35.32924259      13.39508302       0.52664975      -0.40901948      -0.09728361
B       -0.25104371      -0.41834321       5.86209799        0     -22.78333004      -9.32440744     -60.24761906      -0.07741084       0.12663667       1.08084556
C        0.47070132       0.76379760       5.01885480        0     -46.30898064       4.57566124     -86.53245943      -0.10621791      -0.07496452       0.23912203
C        1.83784498       0.76946805       4.92865606        0     -46.42524186      29.46139313     -70.97237752       0.77195225      -0.10417351       0.21652990
C        2.50902349       1.77452246       4.26150194        0     -41.76008165      32.40620095     -63.01185325       1.10707260       0.02845837      -0.08683920
C        4.21922738       1.86707199       4.13037299        0      78.68227193     110.06025781     -60.16253285       0.63359285       0.08677826       0.02006494
F        4.69902376       2.99105434       4.68900826        0      94.60779652     170.30170687     -68.38248596       1.00974331       1.73600295       0.88898779
F        4.71485092       0.79500883       4.77882512        0     147.24672997     180.66452326    -101.19138903       1.17595165      -1.56778750       0.94892371
F        4.56858941       1.81603902       2.83609431        0     163.23935650     201.17344661     -81.83060653       0.86303016      -0.05665578      -1.92407533
C        1.78365214       2.81901119       3.72221382        0     -45.05301680      37.77299939     -49.82178260       0.47478802       0.61059677      -0.23752855
C        0.40753413       2.84212449       3.82638703        0     -45.69806089      29.11416884     -60.77319064      -0.21526418       0.65254478      -0.24885033